LAMMPS (22 Dec 2022)
OMP_NUM_THREADS environment is not set. Defaulting to 1 thread. (src/comm.cpp:98)
  using 1 OpenMP thread(s) per MPI task
Loaded 1 plugins from C:\Users\Marlene\Desktop\LAMMPS 64-bit 22Dec2022\plugins
# sample LAMMPS input script for diffusion of 2d LJ liquid
# mean-squared displacement via compute msd

# settings

variable	x equal 40
variable	y equal 40

variable	rho equal 0.6
variable        t equal 1.0
variable	rc equal 2.5

# problem setup

units		lj
dimension	2
atom_style	atomic
neigh_modify	delay 0 every 1

lattice         sq2 ${rho}
lattice         sq2 0.6
Lattice spacing in x,y,z = 1.8257419 1.8257419 1.8257419
region          simbox block 0 $x 0 $y -0.1 0.1
region          simbox block 0 40 0 $y -0.1 0.1
region          simbox block 0 40 0 40 -0.1 0.1
create_box      1 simbox
Created orthogonal box = (0 0 -0.18257419) to (73.029674 73.029674 0.18257419)
  1 by 1 by 1 MPI processor grid
create_atoms    1 box
Created 3200 atoms
  using lattice units in orthogonal box = (0 0 -0.18257419) to (73.029674 73.029674 0.18257419)
  create_atoms CPU = 0.003 seconds

pair_style      lj/cut ${rc}
pair_style      lj/cut 2.5
pair_coeff      * * 1 1

mass            * 1.0
velocity        all create $t 97287
velocity        all create 1 97287

fix             1 all nve
fix	        2 all langevin $t $t 0.1 498094
fix	        2 all langevin 1 $t 0.1 498094
fix	        2 all langevin 1 1 0.1 498094
fix	        3 all enforce2d

# equilibration run

thermo          1000
run	        100000
Generated 0 of 0 mixed pair_coeff terms from geometric mixing rule
Neighbor list info ...
  update: every = 1 steps, delay = 0 steps, check = yes
  max neighbors/atom: 2000, page size: 100000
  master list distance cutoff = 2.8
  ghost atom cutoff = 2.8
  binsize = 1.4, bins = 53 53 1
  1 neighbor lists, perpetual/occasional/extra = 1 0 0
  (1) pair lj/cut, perpetual
      attributes: half, newton on
      pair build: half/bin/atomonly/newton
      stencil: half/bin/2d
      bin: standard
Per MPI rank memory allocation (min/avg/max) = 3.096 | 3.096 | 3.096 Mbytes
   Step          Temp          E_pair         E_mol          TotEng         Press     
         0   1             -1.56492        0             -0.5652325     -1.5346995    
      1000   1.0077088     -1.5683961      0             -0.56100221     1.0680204    
      2000   1.0103884     -1.5798406      0             -0.56976794     0.98717879   
      3000   1.0047534     -1.5949995      0             -0.59056012     0.9078984    
      4000   0.98056258    -1.5808049      0             -0.60054878     0.95884736   
      5000   0.97356247    -1.5797252      0             -0.60646694     1.0536996    
      6000   1.0309971     -1.5862544      0             -0.5555794      0.94083277   
      7000   1.0070021     -1.6092398      0             -0.60255232     0.87013049   
      8000   1.0039502     -1.5914612      0             -0.58782473     0.90877798   
      9000   1.006278      -1.5935406      0             -0.58757703     1.0254007    
     10000   0.97672511    -1.5850576      0             -0.60863768     1.0431118    
     11000   0.99163766    -1.5894715      0             -0.5981437      1.0069059    
     12000   0.99109702    -1.5828374      0             -0.59205007     1.0130228    
     13000   0.99811064    -1.5918545      0             -0.59405574     0.97405639   
     14000   0.99320322    -1.5837473      0             -0.59085446     0.9340586    
     15000   1.0168628     -1.6109257      0             -0.59438063     0.91453006   
     16000   1.0168598     -1.5924496      0             -0.57590758     0.90684456   
     17000   0.9868864     -1.5865156      0             -0.59993757     1.0298135    
     18000   0.9854649     -1.5827737      0             -0.59761672     1.0812972    
     19000   1.0173243     -1.5871146      0             -0.57010817     0.97622038   
     20000   1.0170263     -1.5816465      0             -0.56493798     1.0437353    
     21000   1.0123324     -1.5901725      0             -0.57815644     0.99351906   
     22000   0.97599442    -1.5949018      0             -0.61921234     0.97665536   
     23000   0.98960902    -1.5917145      0             -0.60241473     0.94989305   
     24000   1.0078049     -1.5971247      0             -0.58963476     0.93427604   
     25000   0.99527211    -1.5803749      0             -0.58541384     1.0440448    
     26000   1.0084584     -1.5998775      0             -0.59173426     1.0488043    
     27000   1.012485      -1.5871239      0             -0.57495536     1.0196157    
     28000   1.007938      -1.6057974      0             -0.59817445     0.95786045   
     29000   0.9679357     -1.5882935      0             -0.62066033     0.92012891   
     30000   0.99286947    -1.5758971      0             -0.58333792     1.1020537    
     31000   0.99921459    -1.589699       0             -0.59079664     1.0314014    
     32000   1.0217023     -1.6022794      0             -0.58089636     0.97026795   
     33000   0.98474997    -1.5859431      0             -0.60150084     1.0656262    
     34000   1.0084557     -1.5777624      0             -0.56962185     1.0940072    
     35000   1.0325408     -1.5936961      0             -0.56147793     1.1178606    
     36000   1.0262889     -1.5813608      0             -0.55539257     1.0470989    
     37000   1.0095026     -1.5816364      0             -0.57244932     1.0066352    
     38000   0.99116953    -1.5885848      0             -0.59772502     1.0163994    
     39000   1.0000801     -1.6011581      0             -0.60139055     0.94574922   
     40000   0.99820597    -1.5881497      0             -0.59025568     1.0960383    
     41000   1.0417048     -1.6039672      0             -0.56258791     0.98389704   
     42000   1.0077955     -1.5878451      0             -0.58036455     0.97726362   
     43000   1.0317622     -1.5942439      0             -0.56280413     0.99976292   
     44000   1.0094089     -1.6047253      0             -0.5956318      0.93683238   
     45000   0.97697076    -1.5940281      0             -0.61736268     0.98921855   
     46000   0.98818721    -1.579286       0             -0.5914076      1.0507055    
     47000   1.0208336     -1.6009415      0             -0.58042697     0.9795569    
     48000   0.98496843    -1.5931445      0             -0.60848383     0.87136661   
     49000   1.0404924     -1.594835       0             -0.55466773     0.98865166   
     50000   1.0091854     -1.5900473      0             -0.58117724     1.0045347    
     51000   0.99555765    -1.5820928      0             -0.58684628     1.0129599    
     52000   0.9896449     -1.5899036      0             -0.60056794     1.0567949    
     53000   1.0377724     -1.5859732      0             -0.54852513     1.0117845    
     54000   1.0035975     -1.5785663      0             -0.57528242     1.049874     
     55000   0.98678624    -1.6062731      0             -0.61979524     0.91078639   
     56000   1.0355401     -1.6044462      0             -0.56922976     1.011861     
     57000   1.0027112     -1.6004441      0             -0.59804618     0.98836042   
     58000   1.0083411     -1.6019928      0             -0.59396677     0.97956636   
     59000   1.03413       -1.6013864      0             -0.5675796      0.97658761   
     60000   0.97726758    -1.6025862      0             -0.62562405     0.92780159   
     61000   1.0361236     -1.5948875      0             -0.55908766     0.95992675   
     62000   1.0019648     -1.5827008      0             -0.5810491      1.0131868    
     63000   1.0236444     -1.594688       0             -0.57136353     1.0164061    
     64000   1.0141193     -1.6013578      0             -0.58755543     0.94982014   
     65000   1.0041        -1.5783711      0             -0.57458483     1.1018303    
     66000   1.0054552     -1.5990199      0             -0.59387892     1.0157521    
     67000   0.96846967    -1.5897505      0             -0.6215835      1.0852635    
     68000   0.98571689    -1.583035       0             -0.59762618     1.0187888    
     69000   1.0129589     -1.6042425      0             -0.59160019     1.0292047    
     70000   0.98306817    -1.5852181      0             -0.60245717     1.0893209    
     71000   1.0040818     -1.6079976      0             -0.60422956     0.92738332   
     72000   1.0111735     -1.6121875      0             -0.60133001     0.95401544   
     73000   0.98173376    -1.5911735      0             -0.60974653     1.0048684    
     74000   1.0026105     -1.581029       0             -0.57873179     1.0425772    
     75000   0.99419142    -1.6017284      0             -0.60784767     1.0211481    
     76000   1.0228016     -1.6003891      0             -0.57790722     1.0315922    
     77000   1.018369      -1.5931209      0             -0.57507008     1.0431174    
     78000   1.012421      -1.5993189      0             -0.58721423     0.95620784   
     79000   0.98007938    -1.5938496      0             -0.6140765      0.90282343   
     80000   1.0022702     -1.5923901      0             -0.59043307     1.0235208    
     81000   0.99398161    -1.5955779      0             -0.60190687     1.0141764    
     82000   1.0117508     -1.5876215      0             -0.57618694     1.0145296    
     83000   0.9875299     -1.5949999      0             -0.60777859     1.0448737    
     84000   0.97801892    -1.6081989      0             -0.63048565     0.92971757   
     85000   0.98969286    -1.597516       0             -0.60813246     1.0203718    
     86000   1.0068612     -1.604197       0             -0.59765045     0.93177414   
     87000   0.98284774    -1.5813934      0             -0.59885284     1.0791836    
     88000   0.95027269    -1.5961644      0             -0.64618867     0.98460786   
     89000   1.0155809     -1.6077212      0             -0.5924577      0.9881503    
     90000   1.0104122     -1.5967331      0             -0.58663668     0.96674773   
     91000   0.99691981    -1.6110745      0             -0.61446624     0.95434907   
     92000   1.0059103     -1.5903997      0             -0.58480373     0.95601658   
     93000   1.0109853     -1.5895874      0             -0.57891797     1.0240042    
     94000   0.97059637    -1.5878073      0             -0.61751429     1.0601888    
     95000   1.0236846     -1.5928896      0             -0.56952486     1.003436     
     96000   1.0132883     -1.6009318      0             -0.58796016     0.92202083   
     97000   1.0378063     -1.599532       0             -0.56205004     1.0765376    
     98000   0.99976652    -1.6133438      0             -0.61388969     0.94252056   
     99000   0.99213879    -1.5963337      0             -0.60450491     0.9753748    
    100000   1.0025383     -1.6006643      0             -0.59843929     1.0160028    
Loop time of 95.1164 on 1 procs for 100000 steps with 3200 atoms

Performance: 454180.151 tau/day, 1051.343 timesteps/s, 3.364 Matom-step/s
91.0% CPU use with 1 MPI tasks x 1 OpenMP threads

MPI task timing breakdown:
Section |  min time  |  avg time  |  max time  |%varavg| %total
---------------------------------------------------------------
Pair    | 48.346     | 48.346     | 48.346     |   0.0 | 50.83
Neigh   | 13.528     | 13.528     | 13.528     |   0.0 | 14.22
Comm    | 1.2228     | 1.2228     | 1.2228     |   0.0 |  1.29
Output  | 0.046555   | 0.046555   | 0.046555   |   0.0 |  0.05
Modify  | 27.604     | 27.604     | 27.604     |   0.0 | 29.02
Other   |            | 4.369      |            |       |  4.59

Nlocal:           3200 ave        3200 max        3200 min
Histogram: 1 0 0 0 0 0 0 0 0 0
Nghost:            509 ave         509 max         509 min
Histogram: 1 0 0 0 0 0 0 0 0 0
Neighs:          22444 ave       22444 max       22444 min
Histogram: 1 0 0 0 0 0 0 0 0 0

Total # of neighbors = 22444
Ave neighs/atom = 7.01375
Neighbor list builds = 12011
Dangerous builds = 0

unfix		2

# data gathering run

reset_timestep  0

# factor of 4 in 2 variables is for 2d

compute         msd all msd com yes
variable        twopoint equal c_msd[4]/4/(step*dt+1.0e-6)
fix             9 all vector 10 c_msd[4]
variable        fitslope equal slope(f_9)/4/(10*dt)

thermo_style	custom step temp c_msd[4] v_twopoint v_fitslope

# only need to run for 10K steps to make a good 100-frame movie

#dump	        1 all custom 1 tmp.dump id type vx vy vz

#dump		2 all image 100 image.*.jpg type type zoom 1.6 adiam 1.2

thermo          1000
run	        100000
Generated 0 of 0 mixed pair_coeff terms from geometric mixing rule
Per MPI rank memory allocation (min/avg/max) = 3.471 | 3.471 | 3.471 Mbytes
   Step          Temp         c_msd[4]      v_twopoint     v_fitslope  
         0   1.0025383      2.5256171e-28  6.3140427e-23  5e+20        
      1000   1.0128649      4.142722       0.20713606     0.21365363   
      2000   0.98285503     8.880617       0.2220154      0.22950878   
      3000   1.0115101      13.867564      0.23112605     0.23623526   
      4000   0.98876409     19.060398      0.23825496     0.2420874    
      5000   0.99882812     24.020206      0.24020205     0.2454264    
      6000   0.99412134     29.124028      0.24270023     0.24772382   
      7000   0.99305163     34.464276      0.24617339     0.24957917   
      8000   1.0036479      39.50499       0.24690618     0.25118628   
      9000   0.98014117     45.754735      0.25419297     0.25364555   
     10000   0.97722381     52.149108      0.26074554     0.25870179   
     11000   1.0045564      58.743325      0.26701511     0.26445177   
     12000   0.98134015     64.583106      0.26909627     0.26933949   
     13000   0.99676112     70.383558      0.27070599     0.27334663   
     14000   0.99906151     76.638014      0.27370719     0.27661398   
     15000   0.99850012     82.970717      0.27656905     0.27961019   
     16000   0.99593094     88.997155      0.27811611     0.28230236   
     17000   1.0043663      95.340058      0.28041193     0.28454765   
     18000   0.9953887      101.83121      0.28286447     0.2868242    
     19000   0.98866661     109.03592      0.28693662     0.28931039   
     20000   1.0170341      115.9122       0.2897805      0.29197603   
     21000   1.0017771      123.4566       0.29394429     0.29486737   
     22000   0.98657119     130.61383      0.29684962     0.29788176   
     23000   0.99272944     138.20201      0.30043915     0.30101296   
     24000   0.9687638      146.15984      0.30449966     0.30439602   
     25000   0.99629832     154.78412      0.30956824     0.3079529    
     26000   1.0066284      161.67519      0.31091382     0.31159695   
     27000   1.0072368      168.17723      0.31143931     0.31463803   
     28000   1.0033106      175.7181       0.31378231     0.31725914   
     29000   1.0062664      182.80865      0.31518733     0.31974929   
     30000   0.99476592     190.44205      0.31740341     0.3219848    
     31000   1.0089727      196.646        0.31717097     0.32402375   
     32000   0.99505444     203.69279      0.31826998     0.3257189    
     33000   0.98861649     210.72015      0.31927295     0.32724189   
     34000   0.99357719     218.60225      0.3214739      0.32874154   
     35000   0.9837436      224.94401      0.32134858     0.33010947   
     36000   0.99675969     233.07016      0.32370855     0.33136992   
     37000   0.98683515     239.5786       0.32375486     0.33269519   
     38000   1.0032276      247.26359      0.32534682     0.33391953   
     39000   1.0121868      252.03314      0.32311941     0.33479662   
     40000   1.0001573      256.64501      0.32080626     0.33525212   
     41000   0.99984971     261.56758      0.31898485     0.33527637   
     42000   1.0072047      265.97119      0.31663237     0.33490934   
     43000   0.99249632     269.17874      0.31299853     0.33413147   
     44000   1.0085071      274.76007      0.31222735     0.33314183   
     45000   0.99585406     280.23134      0.31136815     0.33213103   
     46000   0.99408815     284.85377      0.30962367     0.33093779   
     47000   0.9937939      289.11764      0.30757196     0.32973044   
     48000   0.98913799     294.93433      0.30722326     0.32844109   
     49000   0.98262931     298.21336      0.30429935     0.32701032   
     50000   0.98039688     304.26668      0.30426667     0.32557251   
     51000   1.0044833      310.44157      0.30435448     0.32423025   
     52000   0.97591957     317.237        0.30503558     0.32307949   
     53000   0.99533207     322.20213      0.30396427     0.32193654   
     54000   0.99457623     329.32185      0.30492764     0.32092273   
     55000   0.98680887     335.10795      0.30464359     0.31998754   
     56000   0.99096695     340.67812      0.30417689     0.31910614   
     57000   0.98664038     345.65307      0.30320444     0.31815619   
     58000   0.99664653     351.54363      0.30305485     0.31723904   
     59000   1.0084495      357.69001      0.30312713     0.31633002   
     60000   0.99241298     365.84073      0.30486727     0.31560898   
     61000   0.99187527     374.92218      0.30731326     0.31519074   
     62000   0.98412308     382.17266      0.30820376     0.31492717   
     63000   0.99693598     390.24197      0.30971585     0.31477286   
     64000   0.99609317     395.00265      0.30859582     0.31469668   
     65000   1.0070854      401.18572      0.3086044      0.31455221   
     66000   0.98892229     407.69961      0.30886334     0.31437541   
     67000   0.998388       415.68789      0.31021484     0.31429857   
     68000   1.003946       422.51352      0.3106717      0.31429991   
     69000   0.98184239     428.40515      0.31043851     0.31430359   
     70000   0.99735886     435.23024      0.31087874     0.31431147   
     71000   0.99202367     441.5418       0.31094493     0.31434106   
     72000   0.99463075     447.83622      0.31099737     0.31435649   
     73000   0.99119948     456.14443      0.31242769     0.31442699   
     74000   1.0096323      464.35553      0.31375374     0.31462299   
     75000   1.0015876      471.07757      0.31405171     0.31489441   
     76000   0.98963544     476.36453      0.31339771     0.31507373   
     77000   0.99118327     484.17947      0.31440225     0.31526023   
     78000   0.98679857     490.24325      0.3142585      0.31546979   
     79000   1.0050881      497.59375      0.31493275     0.31570056   
     80000   0.99084966     506.26679      0.31641675     0.31595601   
     81000   0.99451134     511.69538      0.31586134     0.31626035   
     82000   0.98635453     519.15273      0.31655654     0.3165308    
     83000   0.99284365     528.35997      0.31828914     0.31688162   
     84000   1.0103251      537.49595      0.31993807     0.31732162   
     85000   0.99185414     544.80314      0.32047244     0.31779903   
     86000   1.00193        553.30169      0.32168703     0.31831224   
     87000   1.0137877      564.40578      0.32437114     0.31891829   
     88000   0.98203608     573.76782      0.32600444     0.31964221   
     89000   0.99618162     579.45787      0.32553813     0.32037009   
     90000   0.99537259     586.1788       0.32565489     0.32105596   
     91000   0.98455283     591.27431      0.32487599     0.32166296   
     92000   1.0071525      597.39653      0.32467203     0.32221403   
     93000   0.98714503     602.69504      0.32402959     0.32268237   
     94000   0.99248883     608.07016      0.32344157     0.3231057    
     95000   0.99134761     614.98562      0.32367664     0.32349345   
     96000   0.98597988     620.87011      0.32336985     0.32383865   
     97000   1.0156816      627.02757      0.32321009     0.32415345   
     98000   0.99295405     633.81778      0.32337642     0.32444192   
     99000   0.98757506     640.6831       0.32357732     0.32470582   
    100000   0.99505786     647.46185      0.32373092     0.3249798    
Loop time of 78.0445 on 1 procs for 100000 steps with 3200 atoms

Performance: 553530.336 tau/day, 1281.320 timesteps/s, 4.100 Matom-step/s
89.1% CPU use with 1 MPI tasks x 1 OpenMP threads

MPI task timing breakdown:
Section |  min time  |  avg time  |  max time  |%varavg| %total
---------------------------------------------------------------
Pair    | 49.628     | 49.628     | 49.628     |   0.0 | 63.59
Neigh   | 14.534     | 14.534     | 14.534     |   0.0 | 18.62
Comm    | 1.2801     | 1.2801     | 1.2801     |   0.0 |  1.64
Output  | 0.067266   | 0.067266   | 0.067266   |   0.0 |  0.09
Modify  | 7.8116     | 7.8116     | 7.8116     |   0.0 | 10.01
Other   |            | 4.724      |            |       |  6.05

Nlocal:           3200 ave        3200 max        3200 min
Histogram: 1 0 0 0 0 0 0 0 0 0
Nghost:            490 ave         490 max         490 min
Histogram: 1 0 0 0 0 0 0 0 0 0
Neighs:          22482 ave       22482 max       22482 min
Histogram: 1 0 0 0 0 0 0 0 0 0

Total # of neighbors = 22482
Ave neighs/atom = 7.025625
Neighbor list builds = 12805
Dangerous builds = 0
Total wall time: 0:02:53
