LAMMPS (22 Dec 2022)
OMP_NUM_THREADS environment is not set. Defaulting to 1 thread. (src/comm.cpp:98)
  using 1 OpenMP thread(s) per MPI task
Loaded 1 plugins from C:\Users\Marlene\Desktop\LAMMPS 64-bit 22Dec2022\plugins
# sample LAMMPS input script for diffusion of 2d LJ liquid
# mean-squared displacement via compute msd

# settings

variable	x equal 40
variable	y equal 40

variable	rho equal 0.6
variable        t equal 1.0
variable	rc equal 2.5

# problem setup

units		lj
dimension	2
atom_style	atomic
neigh_modify	delay 0 every 1

lattice         sq2 ${rho}
lattice         sq2 0.6
Lattice spacing in x,y,z = 1.8257419 1.8257419 1.8257419
region          simbox block 0 $x 0 $y -0.1 0.1
region          simbox block 0 40 0 $y -0.1 0.1
region          simbox block 0 40 0 40 -0.1 0.1
create_box      1 simbox
Created orthogonal box = (0 0 -0.18257419) to (73.029674 73.029674 0.18257419)
  1 by 1 by 1 MPI processor grid
create_atoms    1 box
Created 3200 atoms
  using lattice units in orthogonal box = (0 0 -0.18257419) to (73.029674 73.029674 0.18257419)
  create_atoms CPU = 0.002 seconds

pair_style      lj/cut ${rc}
pair_style      lj/cut 2.5
pair_coeff      * * 0.25 0.25

mass            * 1.0
velocity        all create $t 97287
velocity        all create 1 97287

fix             1 all nve
fix	        2 all langevin $t $t 0.1 498094
fix	        2 all langevin 1 $t 0.1 498094
fix	        2 all langevin 1 1 0.1 498094
fix	        3 all enforce2d

# equilibration run

thermo          1000
run	        5000
Generated 0 of 0 mixed pair_coeff terms from geometric mixing rule
Neighbor list info ...
  update: every = 1 steps, delay = 0 steps, check = yes
  max neighbors/atom: 2000, page size: 100000
  master list distance cutoff = 2.8
  ghost atom cutoff = 2.8
  binsize = 1.4, bins = 53 53 1
  1 neighbor lists, perpetual/occasional/extra = 1 0 0
  (1) pair lj/cut, perpetual
      attributes: half, newton on
      pair build: half/bin/atomonly/newton
      stencil: half/bin/2d
      bin: standard
Per MPI rank memory allocation (min/avg/max) = 3.096 | 3.096 | 3.096 Mbytes
   Step          Temp          E_pair         E_mol          TotEng         Press     
         0   1             -0.0001186467   0              0.99956885     0.59959895   
      1000   1.0110192     -0.013803612    0              0.99689963     0.62530836   
      2000   1.0027281     -0.015251413    0              0.98716335     0.62494131   
      3000   1.0040152     -0.016248288    0              0.98745316     0.61439816   
      4000   0.98140787    -0.015892539    0              0.96520864     0.599335     
      5000   0.97743092    -0.018718838    0              0.95840664     0.59784613   
Loop time of 4.0122 on 1 procs for 5000 steps with 3200 atoms

Performance: 538358.545 tau/day, 1246.200 timesteps/s, 3.988 Matom-step/s
98.1% CPU use with 1 MPI tasks x 1 OpenMP threads

MPI task timing breakdown:
Section |  min time  |  avg time  |  max time  |%varavg| %total
---------------------------------------------------------------
Pair    | 2.0318     | 2.0318     | 2.0318     |   0.0 | 50.64
Neigh   | 0.63444    | 0.63444    | 0.63444    |   0.0 | 15.81
Comm    | 0.0536     | 0.0536     | 0.0536     |   0.0 |  1.34
Output  | 0.002138   | 0.002138   | 0.002138   |   0.0 |  0.05
Modify  | 1.1493     | 1.1493     | 1.1493     |   0.0 | 28.64
Other   |            | 0.1409     |            |       |  3.51

Nlocal:           3200 ave        3200 max        3200 min
Histogram: 1 0 0 0 0 0 0 0 0 0
Nghost:            523 ave         523 max         523 min
Histogram: 1 0 0 0 0 0 0 0 0 0
Neighs:          23081 ave       23081 max       23081 min
Histogram: 1 0 0 0 0 0 0 0 0 0

Total # of neighbors = 23081
Ave neighs/atom = 7.2128125
Neighbor list builds = 602
Dangerous builds = 0

unfix		2

# data gathering run

reset_timestep  0

# factor of 4 in 2 variables is for 2d

compute         msd all msd com yes
variable        twopoint equal c_msd[4]/4/(step*dt+1.0e-6)
fix             9 all vector 10 c_msd[4]
variable        fitslope equal slope(f_9)/4/(10*dt)

thermo_style	custom step temp c_msd[4] v_twopoint v_fitslope

# only need to run for 10K steps to make a good 100-frame movie

#dump	        1 all custom 1 tmp.dump id type vx vy vz

#dump		2 all image 100 image.*.jpg type type zoom 1.6 adiam 1.2

thermo          1000
run	        100000
Generated 0 of 0 mixed pair_coeff terms from geometric mixing rule
Per MPI rank memory allocation (min/avg/max) = 3.471 | 3.471 | 3.471 Mbytes
   Step          Temp         c_msd[4]      v_twopoint     v_fitslope  
         0   0.97743092     1.2618146e-27  3.1545364e-22  5e+20        
      1000   0.97423887     23.662894      1.1831445      1.2420836    
      2000   0.97644023     61.794631      1.5448656      1.627868     
      3000   0.97668884     100.70329      1.6783881      1.7855896    
      4000   0.9782247      138.43467      1.7304333      1.8432333    
      5000   0.97677053     175.38453      1.7538452      1.8637214    
      6000   0.97924601     213.88971      1.7824142      1.8668492    
      7000   0.97563442     251.68313      1.7977366      1.8735009    
      8000   0.97648459     291.82237      1.8238898      1.883363     
      9000   0.97571212     328.30488      1.823916       1.8900957    
     10000   0.97817275     368.11231      1.8405615      1.8947231    
     11000   0.97817182     408.67501      1.8576136      1.9008578    
     12000   0.97638309     451.68957      1.8820398      1.9134082    
     13000   0.97875467     489.8616       1.8840831      1.923747     
     14000   0.97703131     525.48884      1.8767458      1.928842     
     15000   0.97365634     562.90873      1.8763624      1.9283529    
     16000   0.9790814      602.74699      1.8835843      1.9292601    
     17000   0.97946993     642.2171       1.8888738      1.9316877    
     18000   0.97977327     682.59306      1.8960918      1.9329432    
     19000   0.9784214      724.16064      1.9056859      1.9354531    
     20000   0.97683491     767.00821      1.9175205      1.940109     
     21000   0.97691689     809.63251      1.9276964      1.9460049    
     22000   0.97759809     850.55548      1.9330806      1.9531672    
     23000   0.97676031     891.15235      1.9372877      1.9591313    
     24000   0.97955691     933.70012      1.9452086      1.9647048    
     25000   0.9783743      974.46148      1.9489229      1.969978     
     26000   0.97806491     1012.6934      1.9474872      1.9740035    
     27000   0.97894271     1058.3456      1.9598993      1.9784225    
     28000   0.97975874     1102.3526      1.9684868      1.9842448    
     29000   0.97957666     1143.6944      1.9718868      1.9891089    
     30000   0.98006053     1183.632       1.97272        1.9943176    
     31000   0.98114692     1221.9843      1.9709424      1.9981225    
     32000   0.97728277     1264.7917      1.9762371      2.0010719    
     33000   0.9803102      1299.0643      1.9682792      2.0039198    
     34000   0.98064969     1332.459       1.9594985      2.0036723    
     35000   0.9785649      1365.1055      1.9501507      2.0022987    
     36000   0.97897852     1402.5113      1.9479323      1.9999383    
     37000   0.98102499     1447.3174      1.9558343      1.9979774    
     38000   0.97748331     1494.4164      1.9663374      1.9979818    
     39000   0.98113767     1528.0692      1.9590631      1.9978691    
     40000   0.98148232     1568.0716      1.9600895      1.9969128    
     41000   0.98320534     1606.6102      1.9592808      1.9965133    
     42000   0.97941818     1639.1878      1.951414       1.995107     
     43000   0.97944326     1676.235       1.9491104      1.9931077    
     44000   0.98061838     1714.9869      1.9488487      1.9912566    
     45000   0.98024808     1756.0426      1.9511584      1.9893248    
     46000   0.977087       1797.3348      1.9536247      1.9880697    
     47000   0.9813413      1837.367       1.9546458      1.986994     
     48000   0.98336924     1872.1884      1.9501963      1.985714     
     49000   0.98340753     1902.2287      1.9410497      1.9836883    
     50000   0.98432161     1941.7157      1.9417157      1.9813231    
     51000   0.98488569     1989.7643      1.9507493      1.9797946    
     52000   0.98365609     2033.7709      1.9555489      1.9791119    
     53000   0.98601787     2074.6073      1.9571767      1.9786378    
     54000   0.98469887     2127.5575      1.9699606      1.9791031    
     55000   0.98412121     2169.0423      1.9718566      1.9804098    
     56000   0.98328595     2198.1062      1.9625948      1.9810578    
     57000   0.98276804     2229.3483      1.9555687      1.980759     
     58000   0.98702154     2267.4897      1.9547325      1.9798424    
     59000   0.98444972     2315.786       1.9625305      1.9795664    
     60000   0.98449634     2358.3193      1.9652661      1.9798214    
     61000   0.98507252     2396.8423      1.9646248      1.9800505    
     62000   0.98743349     2432.2699      1.9615079      1.9800955    
     63000   0.98667971     2484.6333      1.9719312      1.9803965    
     64000   0.98688136     2534.3667      1.979974       1.9814729    
     65000   0.9861267      2580.9965      1.9853819      1.983164     
     66000   0.98735153     2620.5224      1.9852442      1.9848285    
     67000   0.98818311     2657.7019      1.9833596      1.9864571    
     68000   0.98670509     2702.6841      1.9872677      1.987909     
     69000   0.98879655     2750.1322      1.9928494      1.989722     
     70000   0.98875615     2779.1224      1.9850874      1.9912287    
     71000   0.9886095      2819.2308      1.9853738      1.9922673    
     72000   0.98861411     2853.1625      1.9813628      1.993068     
     73000   0.98993927     2880.5135      1.9729544      1.9933323    
     74000   0.99034461     2915.3426      1.9698261      1.9929754    
     75000   0.98994045     2963.003       1.9753353      1.9927703    
     76000   0.98888269     3003.7898      1.9761775      1.9927699    
     77000   0.98664052     3051.2265      1.9813159      1.993012     
     78000   0.98900262     3087.4264      1.9791195      1.9934918    
     79000   0.98966606     3113.1582      1.9703533      1.9933858    
     80000   0.98928582     3154.6842      1.9716776      1.9929543    
     81000   0.98939411     3190.7467      1.9695967      1.9924976    
     82000   0.98629097     3238.6227      1.97477        1.9922047    
     83000   0.98889303     3282.5576      1.9774443      1.9921787    
     84000   0.98716688     3328.5235      1.981264       1.9924185    
     85000   0.98958681     3376.0803      1.9859296      1.9929264    
     86000   0.99112472     3423.3442      1.9903164      1.993611     
     87000   0.98893515     3471.7253      1.9952444      1.9946478    
     88000   0.99174296     3509.4203      1.9939888      1.9957357    
     89000   0.99077755     3547.4468      1.9929476      1.9966335    
     90000   0.98681045     3590.8923      1.9949402      1.9974659    
     91000   0.98843581     3634.527       1.9969928      1.9984195    
     92000   0.99056265     3660.9839      1.9896651      1.999194     
     93000   0.99052848     3695.1084      1.9866174      1.9995101    
     94000   0.99144944     3733.6094      1.9859625      1.9997391    
     95000   0.9893031      3773.4422      1.9860222      1.9998453    
     96000   0.99106874     3822.5677      1.9909207      2.0001459    
     97000   0.98913315     3872.447       1.9961067      2.0007482    
     98000   0.99102305     3909.0137      1.9943947      2.0013764    
     99000   0.99017453     3946.5277      1.9931958      2.0019213    
    100000   0.99148042     3985.212       1.992606       2.0023993    
Loop time of 65.4138 on 1 procs for 100000 steps with 3200 atoms

Performance: 660410.702 tau/day, 1528.728 timesteps/s, 4.892 Matom-step/s
96.1% CPU use with 1 MPI tasks x 1 OpenMP threads

MPI task timing breakdown:
Section |  min time  |  avg time  |  max time  |%varavg| %total
---------------------------------------------------------------
Pair    | 41.606     | 41.606     | 41.606     |   0.0 | 63.60
Neigh   | 13.814     | 13.814     | 13.814     |   0.0 | 21.12
Comm    | 1.0381     | 1.0381     | 1.0381     |   0.0 |  1.59
Output  | 0.056486   | 0.056486   | 0.056486   |   0.0 |  0.09
Modify  | 6.2243     | 6.2243     | 6.2243     |   0.0 |  9.52
Other   |            | 2.675      |            |       |  4.09

Nlocal:           3200 ave        3200 max        3200 min
Histogram: 1 0 0 0 0 0 0 0 0 0
Nghost:            501 ave         501 max         501 min
Histogram: 1 0 0 0 0 0 0 0 0 0
Neighs:          23528 ave       23528 max       23528 min
Histogram: 1 0 0 0 0 0 0 0 0 0

Total # of neighbors = 23528
Ave neighs/atom = 7.3525
Neighbor list builds = 12793
Dangerous builds = 0
Total wall time: 0:01:09
