LAMMPS (22 Dec 2022)
OMP_NUM_THREADS environment is not set. Defaulting to 1 thread. (src/comm.cpp:98)
  using 1 OpenMP thread(s) per MPI task
Loaded 1 plugins from C:\Users\Marlene\Desktop\LAMMPS 64-bit 22Dec2022\plugins
# sample LAMMPS input script for diffusion of 2d LJ liquid
# mean-squared displacement via compute msd

# settings

variable	x equal 40
variable	y equal 40

variable	rho equal 0.6
variable        t equal 1.0
variable	rc equal 2.5

# problem setup

units		lj
dimension	2
atom_style	atomic
neigh_modify	delay 0 every 1

lattice         sq2 ${rho}
lattice         sq2 0.6
Lattice spacing in x,y,z = 1.8257419 1.8257419 1.8257419
region          simbox block 0 $x 0 $y -0.1 0.1
region          simbox block 0 40 0 $y -0.1 0.1
region          simbox block 0 40 0 40 -0.1 0.1
create_box      1 simbox
Created orthogonal box = (0 0 -0.18257419) to (73.029674 73.029674 0.18257419)
  1 by 1 by 1 MPI processor grid
create_atoms    1 box
Created 3200 atoms
  using lattice units in orthogonal box = (0 0 -0.18257419) to (73.029674 73.029674 0.18257419)
  create_atoms CPU = 0.004 seconds

pair_style      lj/cut ${rc}
pair_style      lj/cut 2.5
pair_coeff      * * 0.5 0.5

mass            * 1.0
velocity        all create $t 97287
velocity        all create 1 97287

fix             1 all nve
fix	        2 all langevin $t $t 0.1 498094
fix	        2 all langevin 1 $t 0.1 498094
fix	        2 all langevin 1 1 0.1 498094
fix	        3 all enforce2d

# equilibration run

thermo          1000
run	        5000
Generated 0 of 0 mixed pair_coeff terms from geometric mixing rule
Neighbor list info ...
  update: every = 1 steps, delay = 0 steps, check = yes
  max neighbors/atom: 2000, page size: 100000
  master list distance cutoff = 2.8
  ghost atom cutoff = 2.8
  binsize = 1.4, bins = 53 53 1
  1 neighbor lists, perpetual/occasional/extra = 1 0 0
  (1) pair lj/cut, perpetual
      attributes: half, newton on
      pair build: half/bin/atomonly/newton
      stencil: half/bin/2d
      bin: standard
Per MPI rank memory allocation (min/avg/max) = 3.096 | 3.096 | 3.096 Mbytes
   Step          Temp          E_pair         E_mol          TotEng         Press     
         0   1             -0.015141226    0              0.98454627     0.57264159   
      1000   1.0191893     -0.16279024     0              0.8560806      0.65033151   
      2000   0.99262005    -0.16266437     0              0.82964548     0.61092115   
      3000   0.99831494    -0.16898682     0              0.82901615     0.63977088   
      4000   0.98111411    -0.15610825     0              0.82469927     0.67355063   
      5000   0.98253325    -0.17431549     0              0.80791073     0.58102803   
Loop time of 3.63338 on 1 procs for 5000 steps with 3200 atoms

Performance: 594487.941 tau/day, 1376.129 timesteps/s, 4.404 Matom-step/s
99.3% CPU use with 1 MPI tasks x 1 OpenMP threads

MPI task timing breakdown:
Section |  min time  |  avg time  |  max time  |%varavg| %total
---------------------------------------------------------------
Pair    | 1.854      | 1.854      | 1.854      |   0.0 | 51.03
Neigh   | 0.58307    | 0.58307    | 0.58307    |   0.0 | 16.05
Comm    | 0.03838    | 0.03838    | 0.03838    |   0.0 |  1.06
Output  | 0.001888   | 0.001888   | 0.001888   |   0.0 |  0.05
Modify  | 1.0556     | 1.0556     | 1.0556     |   0.0 | 29.05
Other   |            | 0.1004     |            |       |  2.76

Nlocal:           3200 ave        3200 max        3200 min
Histogram: 1 0 0 0 0 0 0 0 0 0
Nghost:            498 ave         498 max         498 min
Histogram: 1 0 0 0 0 0 0 0 0 0
Neighs:          23195 ave       23195 max       23195 min
Histogram: 1 0 0 0 0 0 0 0 0 0

Total # of neighbors = 23195
Ave neighs/atom = 7.2484375
Neighbor list builds = 600
Dangerous builds = 0

unfix		2

# data gathering run

reset_timestep  0

# factor of 4 in 2 variables is for 2d

compute         msd all msd com yes
variable        twopoint equal c_msd[4]/4/(step*dt+1.0e-6)
fix             9 all vector 10 c_msd[4]
variable        fitslope equal slope(f_9)/4/(10*dt)

thermo_style	custom step temp c_msd[4] v_twopoint v_fitslope

# only need to run for 10K steps to make a good 100-frame movie

#dump	        1 all custom 1 tmp.dump id type vx vy vz

#dump		2 all image 100 image.*.jpg type type zoom 1.6 adiam 1.2

thermo          1000
run	        100000
Generated 0 of 0 mixed pair_coeff terms from geometric mixing rule
Per MPI rank memory allocation (min/avg/max) = 3.471 | 3.471 | 3.471 Mbytes
   Step          Temp         c_msd[4]      v_twopoint     v_fitslope  
         0   0.98253325     2.0194366e-27  5.0485915e-22  5e+20        
      1000   0.98008153     13.512801      0.67563993     0.71743668   
      2000   0.98039433     30.330747      0.75826861     0.79531522   
      3000   0.98783357     48.261169      0.80435277     0.82935678   
      4000   0.98278098     67.337644      0.84172051     0.86614426   
      5000   0.99094686     85.068053      0.8506805      0.88162081   
      6000   0.97691976     103.1721       0.85976749     0.89103202   
      7000   0.97940362     122.34374      0.87388384     0.89577369   
      8000   0.97968408     138.74771      0.86717316     0.89817735   
      9000   0.9769245      157.45949      0.87477495     0.89813664   
     10000   0.98245162     174.25996      0.8712998      0.89689628   
     11000   0.991447       193.53719      0.8797145      0.89686196   
     12000   0.98164061     213.69137      0.89038068     0.89986692   
     13000   0.9784632      230.69104      0.88727323     0.90302205   
     14000   0.97221792     250.58462      0.89494506     0.90563017   
     15000   0.9854413      268.65367      0.89551222     0.90973941   
     16000   0.97591035     286.27956      0.89462362     0.91026154   
     17000   0.97920759     306.26813      0.90078862     0.91218464   
     18000   0.9782264      325.99642      0.90554561     0.91475926   
     19000   0.97568082     342.02929      0.90007706     0.91644022   
     20000   0.97722115     357.57873      0.89394681     0.91574893   
     21000   0.9855636      375.60818      0.89430518     0.91384012   
     22000   0.98302092     394.31105      0.89616148     0.91319429   
     23000   0.9764142      413.96081      0.89991479     0.91301118   
     24000   0.98982286     430.05303      0.8959438      0.91238191   
     25000   0.97746408     447.69188      0.89538374     0.91117485   
     26000   0.98393646     463.45231      0.89125444     0.90953272   
     27000   0.98178208     482.42177      0.89337364     0.90800278   
     28000   0.97974886     503.70678      0.89947639     0.90778291   
     29000   0.97873597     526.23613      0.90730367     0.90884732   
     30000   0.97710513     546.04022      0.91006703     0.91054887   
     31000   0.98157787     560.80874      0.90453022     0.91162862   
     32000   0.98334301     578.32697      0.90363589     0.91194057   
     33000   0.9831497      598.13628      0.90626709     0.91230212   
     34000   0.98422515     614.72091      0.90400133     0.91284851   
     35000   0.98022755     632.27042      0.90324345     0.91282864   
     36000   0.98501406     651.53028      0.90490316     0.91284217   
     37000   0.98036115     669.38868      0.90457929     0.91290462   
     38000   0.98254709     689.40464      0.90711136     0.91303352   
     39000   0.98573984     709.75916      0.90994763     0.91360301   
     40000   0.9806379      725.85564      0.90731954     0.91417083   
     41000   0.98503094     740.57551      0.90314086     0.91399717   
     42000   0.98652319     760.4431       0.9052894      0.91376446   
     43000   0.980148       777.17194      0.90368829     0.91359927   
     44000   0.97665596     796.97939      0.90565839     0.9132953    
     45000   0.97717564     816.55103      0.90727891     0.91334998   
     46000   0.97954025     836.05357      0.90875387     0.91352637   
     47000   0.98886392     856.27973      0.91093588     0.91375959   
     48000   0.97884059     878.15229      0.91474196     0.9143988    
     49000   0.98796371     897.53182      0.91584879     0.91527111   
     50000   0.98026347     913.74501      0.913745       0.91597194   
     51000   0.98264841     927.76298      0.90957154     0.91625438   
     52000   0.98402835     943.76251      0.90746395     0.91625149   
     53000   0.97984906     963.23304      0.90871041     0.91621337   
     54000   0.98664138     982.35647      0.90958932     0.91616846   
     55000   0.98475603     1001.7419      0.91067444     0.91624015   
     56000   0.9862132      1022.872       0.91327861     0.9164941    
     57000   0.981023       1042.9666      0.91488295     0.91683975   
     58000   0.98181749     1059.0969      0.9130146      0.91726998   
     59000   0.97878082     1077.6956      0.91330139     0.91750382   
     60000   0.98157327     1094.7929      0.91232738     0.9176418    
     61000   0.97719364     1109.0379      0.90904746     0.91761626   
     62000   0.98666864     1120.9721      0.90400978     0.91712196   
     63000   0.97763213     1139.8415      0.9046361      0.9164028    
     64000   0.98636642     1157.7976      0.9045294      0.91589934   
     65000   0.97525778     1172.4747      0.90190362     0.91521646   
     66000   0.98689814     1198.5585      0.90799884     0.91479023   
     67000   0.98096258     1217.2736      0.90841314     0.91466654   
     68000   0.98566436     1237.5409      0.90995651     0.91458783   
     69000   0.9835641      1258.9413      0.9122763      0.91479881   
     70000   0.97753071     1278.3838      0.91313128     0.91496548   
     71000   0.98572131     1288.8575      0.90764613     0.91500087   
     72000   0.98741692     1310.8668      0.91032419     0.91484172   
     73000   0.98398648     1335.8339      0.91495473     0.91501054   
     74000   0.98324953     1355.8531      0.91611698     0.91542232   
     75000   0.9873022      1375.5444      0.91702958     0.91585261   
     76000   0.97776488     1399.6883      0.92084758     0.9164806    
     77000   0.98338225     1420.0093      0.92208395     0.9171992    
     78000   0.9809607      1444.6633      0.92606619     0.91811117   
     79000   0.98126494     1465.0161      0.92722541     0.91914328   
     80000   0.97979418     1489.002       0.93062626     0.92024074   
     81000   0.98648849     1513.6992      0.93438223     0.92157871   
     82000   0.9808912      1535.9108      0.93653097     0.92301364   
     83000   0.98148627     1558.8122      0.9390435      0.92453176   
     84000   0.98307423     1574.6923      0.93731687     0.92602778   
     85000   0.9798396      1593.8566      0.93756271     0.9273702    
     86000   0.98451517     1614.397       0.93860289     0.92857644   
     87000   0.98206397     1638.2726      0.941536       0.92993908   
     88000   0.98198738     1656.7451      0.94133245     0.93130683   
     89000   0.98475749     1675.0841      0.94105849     0.9325132    
     90000   0.98122652     1693.4324      0.94079576     0.93370295   
     91000   0.98386659     1709.4332      0.93924902     0.93473747   
     92000   0.98279138     1728.1272      0.93919956     0.93562679   
     93000   0.97379951     1746.523       0.93899085     0.93650135   
     94000   0.98039782     1761.8389      0.93714833     0.93727974   
     95000   0.98303755     1779.0473      0.93634071     0.93783756   
     96000   0.98169692     1799.8822      0.93743863     0.93835872   
     97000   0.98587106     1821.7689      0.93905611     0.93896402   
     98000   0.98559314     1841.1236      0.93934876     0.93961379   
     99000   0.97758179     1854.7833      0.93675924     0.94021227   
    100000   0.98738865     1870.0638      0.93503189     0.9405354    
Loop time of 61.9149 on 1 procs for 100000 steps with 3200 atoms

Performance: 697732.281 tau/day, 1615.121 timesteps/s, 5.168 Matom-step/s
96.1% CPU use with 1 MPI tasks x 1 OpenMP threads

MPI task timing breakdown:
Section |  min time  |  avg time  |  max time  |%varavg| %total
---------------------------------------------------------------
Pair    | 39.4       | 39.4       | 39.4       |   0.0 | 63.64
Neigh   | 13.206     | 13.206     | 13.206     |   0.0 | 21.33
Comm    | 0.89805    | 0.89805    | 0.89805    |   0.0 |  1.45
Output  | 0.053139   | 0.053139   | 0.053139   |   0.0 |  0.09
Modify  | 5.8319     | 5.8319     | 5.8319     |   0.0 |  9.42
Other   |            | 2.526      |            |       |  4.08

Nlocal:           3200 ave        3200 max        3200 min
Histogram: 1 0 0 0 0 0 0 0 0 0
Nghost:            489 ave         489 max         489 min
Histogram: 1 0 0 0 0 0 0 0 0 0
Neighs:          23357 ave       23357 max       23357 min
Histogram: 1 0 0 0 0 0 0 0 0 0

Total # of neighbors = 23357
Ave neighs/atom = 7.2990625
Neighbor list builds = 12739
Dangerous builds = 0
Total wall time: 0:01:05
