LAMMPS (22 Dec 2022)
OMP_NUM_THREADS environment is not set. Defaulting to 1 thread. (src/comm.cpp:98)
  using 1 OpenMP thread(s) per MPI task
Loaded 1 plugins from C:\Users\Marlene\Desktop\LAMMPS 64-bit 22Dec2022\plugins
# sample LAMMPS input script for diffusion of 2d LJ liquid
# mean-squared displacement via compute msd

# settings

variable	x equal 40
variable	y equal 40

variable	rho equal 0.6
variable        t equal 1.0
variable	rc equal 2.5

# problem setup

units		lj
dimension	2
atom_style	atomic
neigh_modify	delay 0 every 1

lattice         sq2 ${rho}
lattice         sq2 0.6
Lattice spacing in x,y,z = 1.8257419 1.8257419 1.8257419
region          simbox block 0 $x 0 $y -0.1 0.1
region          simbox block 0 40 0 $y -0.1 0.1
region          simbox block 0 40 0 40 -0.1 0.1
create_box      1 simbox
Created orthogonal box = (0 0 -0.18257419) to (73.029674 73.029674 0.18257419)
  1 by 1 by 1 MPI processor grid
create_atoms    1 box
Created 3200 atoms
  using lattice units in orthogonal box = (0 0 -0.18257419) to (73.029674 73.029674 0.18257419)
  create_atoms CPU = 0.005 seconds

pair_style      lj/cut ${rc}
pair_style      lj/cut 2.5
pair_coeff      * * 1 1

mass            * 2.0
velocity        all create $t 97287
velocity        all create 1 97287

fix             1 all nve
fix	        2 all langevin $t $t 0.1 498094
fix	        2 all langevin 1 $t 0.1 498094
fix	        2 all langevin 1 1 0.1 498094
fix	        3 all enforce2d

# equilibration run

thermo          1000
run	        100000
Generated 0 of 0 mixed pair_coeff terms from geometric mixing rule
Neighbor list info ...
  update: every = 1 steps, delay = 0 steps, check = yes
  max neighbors/atom: 2000, page size: 100000
  master list distance cutoff = 2.8
  ghost atom cutoff = 2.8
  binsize = 1.4, bins = 53 53 1
  1 neighbor lists, perpetual/occasional/extra = 1 0 0
  (1) pair lj/cut, perpetual
      attributes: half, newton on
      pair build: half/bin/atomonly/newton
      stencil: half/bin/2d
      bin: standard
Per MPI rank memory allocation (min/avg/max) = 3.096 | 3.096 | 3.096 Mbytes
   Step          Temp          E_pair         E_mol          TotEng         Press     
         0   1             -1.56492        0             -0.5652325     -1.5346995    
      1000   1.0006484     -1.5663639      0             -0.56602826     0.93537954   
      2000   1.0165067     -1.5759556      0             -0.5597666      1.0246108    
      3000   0.99279051    -1.5759064      0             -0.58342611     0.96369362   
      4000   0.98151681    -1.5876343      0             -0.60642417     0.99879056   
      5000   0.96320723    -1.5695943      0             -0.60668805     1.0832846    
      6000   1.0173109     -1.5844428      0             -0.5674498      0.97222622   
      7000   1.0128737     -1.5923428      0             -0.5797856      0.99079674   
      8000   0.99438771    -1.5928986      0             -0.59882161     0.96775289   
      9000   1.0180605     -1.5935412      0             -0.57579882     0.98163669   
     10000   0.97917201    -1.5850516      0             -0.60618561     0.98576117   
     11000   0.98922336    -1.5790461      0             -0.59013187     1.0407809    
     12000   0.99492397    -1.5995294      0             -0.60491636     0.9524776    
     13000   0.99174697    -1.5894628      0             -0.59802577     1.0107245    
     14000   0.9912615     -1.5865149      0             -0.59556321     1.0777588    
     15000   1.0147901     -1.5940812      0             -0.57960819     0.99016115   
     16000   1.0135148     -1.5972718      0             -0.58407365     0.96302737   
     17000   0.99281693    -1.6064113      0             -0.61390457     0.89727541   
     18000   0.99381046    -1.5688304      0             -0.57533052     1.0832541    
     19000   1.0236716     -1.5843564      0             -0.56100475     1.0577896    
     20000   1.0029129     -1.587605       0             -0.58500552     1.0044267    
     21000   1.0079126     -1.5894112      0             -0.5818135      1.062569     
     22000   0.98729953    -1.5944341      0             -0.60744307     0.93755228   
     23000   0.96924309    -1.5795226      0             -0.61058236     0.9674904    
     24000   0.97540732    -1.5730176      0             -0.5979151      1.0948722    
     25000   0.9924093     -1.5951915      0             -0.6030923      0.96009986   
     26000   1.0099743     -1.6064107      0             -0.59675201     0.96554084   
     27000   1.0032906     -1.5937096      0             -0.59073253     0.99176578   
     28000   0.99138622    -1.5988914      0             -0.60781503     1.0340043    
     29000   0.97978918    -1.6021936      0             -0.62271062     0.92649403   
     30000   0.97506031    -1.6065399      0             -0.63178429     0.90700093   
     31000   1.0077753     -1.6155588      0             -0.60809851     0.94796303   
     32000   0.9997503     -1.5846336      0             -0.58519573     1.0805677    
     33000   0.98629036    -1.5976267      0             -0.61164457     1.0120275    
     34000   1.0225557     -1.5770848      0             -0.55484871     1.0713127    
     35000   1.0385235     -1.5772835      0             -0.53908448     1.0175962    
     36000   0.99724737    -1.5839768      0             -0.5870411      1.1269556    
     37000   1.001076      -1.5838837      0             -0.58312046     1.0180704    
     38000   0.98204082    -1.6029058      0             -0.62117182     0.99746597   
     39000   0.96620768    -1.5848562      0             -0.61895045     1.0346115    
     40000   1.0064863     -1.5957447      0             -0.58957294     0.95385394   
     41000   1.0396304     -1.5805582      0             -0.54125271     1.0698157    
     42000   1.0142821     -1.597976       0             -0.58401085     0.94383993   
     43000   1.0101414     -1.5901074      0             -0.58028165     1.022566     
     44000   0.99476303    -1.5919235      0             -0.59747138     0.93522375   
     45000   0.98762329    -1.607059       0             -0.61974436     0.85850731   
     46000   1.0154255     -1.6102242      0             -0.59511597     0.92985999   
     47000   1.0019127     -1.5886263      0             -0.58702669     1.0561418    
     48000   0.96369979    -1.5966439      0             -0.63324526     0.95894789   
     49000   1.024654      -1.5834753      0             -0.55914148     1.0516669    
     50000   1.0001691     -1.5958942      0             -0.59603763     1.0474688    
     51000   1.008661      -1.5819204      0             -0.57357463     0.99346667   
     52000   0.98751408    -1.5926692      0             -0.60546369     0.97660395   
     53000   1.0165701     -1.5812073      0             -0.56495489     1.1016263    
     54000   0.99217103    -1.5799798      0             -0.58811885     1.1082841    
     55000   0.97794289    -1.595894       0             -0.6182567      0.97391274   
     56000   1.0010117     -1.590058       0             -0.58935913     1.0200997    
     57000   0.99114811    -1.5842328      0             -0.59339444     1.0379783    
     58000   1.0064646     -1.5878846      0             -0.58173448     1.018126     
     59000   1.0194162     -1.59412        0             -0.57502235     1.017745     
     60000   1.0014546     -1.599933       0             -0.59879143     0.97122965   
     61000   1.0354925     -1.5861782      0             -0.55100932     1.1191581    
     62000   1.0131493     -1.5844231      0             -0.57159039     1.078152     
     63000   1.0120167     -1.5857542      0             -0.57405378     1.0729524    
     64000   1.010551      -1.5830576      0             -0.57282238     1.033171     
     65000   1.0355302     -1.5950678      0             -0.55986119     1.0077151    
     66000   0.98863733    -1.5949589      0             -0.60663048     1.0038566    
     67000   0.97412055    -1.5799333      0             -0.60611721     1.0564485    
     68000   0.98287291    -1.5947197      0             -0.61215399     0.96908213   
     69000   0.98861529    -1.5682898      0             -0.57998346     1.1163693    
     70000   1.0046405     -1.5818329      0             -0.57750637     1.038067     
     71000   0.98093721    -1.5945246      0             -0.61389393     0.97312441   
     72000   0.99106509    -1.5997013      0             -0.60894591     0.91945945   
     73000   0.98558117    -1.5813703      0             -0.59609708     0.9939857    
     74000   1.0017982     -1.5828057      0             -0.58132056     1.1504706    
     75000   0.97289972    -1.5870502      0             -0.61445454     1.0030026    
     76000   1.0068031     -1.5930817      0             -0.58659325     0.96728734   
     77000   1.0194274     -1.6007548      0             -0.58164602     0.99318877   
     78000   1.0338112     -1.5998238      0             -0.56633568     0.97561958   
     79000   0.99732922    -1.5954904      0             -0.5984728      0.94161724   
     80000   1.0051764     -1.5677242      0             -0.56286191     1.163836     
     81000   0.96909539    -1.5941437      0             -0.62535114     1.0118654    
     82000   0.99503898    -1.5787131      0             -0.58398505     1.0136848    
     83000   0.9742712     -1.598442       0             -0.6244753      1.0069419    
     84000   0.98655237    -1.5890931      0             -0.60284902     1.0455208    
     85000   0.96788954    -1.5900382      0             -0.62245115     0.98772918   
     86000   1.0038808     -1.5839496      0             -0.58038259     1.0155951    
     87000   0.97261757    -1.5775652      0             -0.60525154     1.0324611    
     88000   0.9791175     -1.601064       0             -0.62225247     0.90531436   
     89000   1.0053494     -1.589152       0             -0.58411672     1.0087675    
     90000   1.0109315     -1.5989888      0             -0.58837319     0.98643848   
     91000   1.0002541     -1.5958162      0             -0.59587465     0.96498388   
     92000   1.0060132     -1.5937641      0             -0.58806526     0.97021153   
     93000   1.0094152     -1.5865284      0             -0.57742865     1.0096206    
     94000   0.98151343    -1.6026023      0             -0.62139564     0.91809125   
     95000   1.020323      -1.5699735      0             -0.54996934     1.0785095    
     96000   1.021698      -1.6050544      0             -0.58367565     0.96361166   
     97000   1.0295823     -1.5778646      0             -0.54860399     1.1469932    
     98000   0.97478105    -1.5966507      0             -0.62217431     0.99074248   
     99000   0.97939199    -1.5796473      0             -0.60056136     1.0572364    
    100000   1.003863      -1.6037679      0             -0.60021868     0.98565594   
Loop time of 107.032 on 1 procs for 100000 steps with 3200 atoms

Performance: 403618.741 tau/day, 934.303 timesteps/s, 2.990 Matom-step/s
85.3% CPU use with 1 MPI tasks x 1 OpenMP threads

MPI task timing breakdown:
Section |  min time  |  avg time  |  max time  |%varavg| %total
---------------------------------------------------------------
Pair    | 58.052     | 58.052     | 58.052     |   0.0 | 54.24
Neigh   | 10.892     | 10.892     | 10.892     |   0.0 | 10.18
Comm    | 1.3923     | 1.3923     | 1.3923     |   0.0 |  1.30
Output  | 0.065135   | 0.065135   | 0.065135   |   0.0 |  0.06
Modify  | 32.596     | 32.596     | 32.596     |   0.0 | 30.45
Other   |            | 4.035      |            |       |  3.77

Nlocal:           3200 ave        3200 max        3200 min
Histogram: 1 0 0 0 0 0 0 0 0 0
Nghost:            497 ave         497 max         497 min
Histogram: 1 0 0 0 0 0 0 0 0 0
Neighs:          22437 ave       22437 max       22437 min
Histogram: 1 0 0 0 0 0 0 0 0 0

Total # of neighbors = 22437
Ave neighs/atom = 7.0115625
Neighbor list builds = 8408
Dangerous builds = 0

unfix		2

# data gathering run

reset_timestep  0

# factor of 4 in 2 variables is for 2d

compute         msd all msd com yes
variable        twopoint equal c_msd[4]/4/(step*dt+1.0e-6)
fix             9 all vector 10 c_msd[4]
variable        fitslope equal slope(f_9)/4/(10*dt)

thermo_style	custom step temp c_msd[4] v_twopoint v_fitslope

# only need to run for 10K steps to make a good 100-frame movie

#dump	        1 all custom 1 tmp.dump id type vx vy vz

#dump		2 all image 100 image.*.jpg type type zoom 1.6 adiam 1.2

thermo          1000
run	        100000
Generated 0 of 0 mixed pair_coeff terms from geometric mixing rule
Per MPI rank memory allocation (min/avg/max) = 3.471 | 3.471 | 3.471 Mbytes
   Step          Temp         c_msd[4]      v_twopoint     v_fitslope  
         0   1.003863       1.0122663e-28  2.5306658e-23  5e+20        
      1000   1.0159982      2.8892857      0.14446425     0.14791173   
      2000   1.0043798      6.5308456      0.16327112     0.16862467   
      3000   0.99800265     10.183378      0.16972296     0.17488845   
      4000   0.98375522     14.523062      0.18153827     0.18402188   
      5000   1.0034554      18.75773       0.18757729     0.19237204   
      6000   1.0017509      23.375064      0.19479219     0.19816903   
      7000   0.98293523     27.746392      0.19818851     0.20363688   
      8000   0.98637394     31.871123      0.19919451     0.20622503   
      9000   0.98646339     36.085415      0.20047453     0.20778515   
     10000   0.9909332      41.07562       0.20537809     0.20959414   
     11000   0.99246143     45.40807       0.20640031     0.21182031   
     12000   0.99589614     49.936029      0.20806678     0.21342946   
     13000   0.97942603     54.429195      0.20934305     0.21488481   
     14000   0.99167312     59.318158      0.21185056     0.21629801   
     15000   0.99049935     63.897118      0.21299039     0.21767034   
     16000   0.99720786     68.055336      0.21267292     0.21870737   
     17000   1.0018862      73.446153      0.21601809     0.21972371   
     18000   0.98650682     78.439696      0.21788804     0.22114691   
     19000   0.99404285     83.46433       0.21964297     0.22266244   
     20000   1.0091532      88.321679      0.22080419     0.22419291   
     21000   0.99148438     93.641933      0.22295698     0.225677     
     22000   0.99173119     98.963772      0.22491766     0.22723009   
     23000   0.99425296     103.60359      0.2252252      0.22873998   
     24000   0.99426102     107.49432      0.22394649     0.22961487   
     25000   0.9816002      111.11018      0.22222036     0.23003047   
     26000   1.0013058      114.91894      0.22099796     0.22987923   
     27000   0.98253507     119.10939      0.22057295     0.22948452   
     28000   0.98812814     123.48965      0.22051723     0.22906316   
     29000   1.0023765      126.78978      0.21860306     0.22853672   
     30000   1.0031282      131.4317       0.21905284     0.22789282   
     31000   0.98972214     135.46653      0.2184944      0.22734391   
     32000   0.98882982     139.35314      0.21773927     0.22674489   
     33000   0.98679077     143.98996      0.2181666      0.22610138   
     34000   0.98701877     147.55023      0.21698563     0.22546127   
     35000   0.98912357     152.35706      0.21765294     0.22484986   
     36000   0.99321177     156.9347       0.21796486     0.22439541   
     37000   0.99432615     161.27614      0.21794073     0.22401357   
     38000   0.99389269     165.61314      0.21791203     0.22364713   
     39000   0.98448081     170.68598      0.21882818     0.22337029   
     40000   0.99982266     175.26217      0.21907772     0.2231842    
     41000   0.98982696     179.58291      0.21900355     0.22301836   
     42000   1.0025239      184.12515      0.21919661     0.22289845   
     43000   0.99366871     188.98141      0.21974583     0.22286597   
     44000   1.0045393      193.92663      0.22037117     0.22285021   
     45000   0.99622512     197.77436      0.21974929     0.2228359    
     46000   0.98878626     203.69171      0.22140403     0.22289191   
     47000   0.98652161     208.75363      0.22207833     0.22305676   
     48000   0.98720639     212.78178      0.22164769     0.22324884   
     49000   0.99506303     216.68947      0.2211117      0.22331844   
     50000   1.0043658      221.78189      0.22178189     0.22341401   
     51000   1.0000705      227.67085      0.22320672     0.22360381   
     52000   0.99410744     234.59902      0.22557598     0.22399597   
     53000   0.9960205      240.16515      0.22657089     0.22453642   
     54000   0.9957548      245.32465      0.22715245     0.22509639   
     55000   1.0041852      249.21119      0.22655562     0.22562211   
     56000   0.98032677     252.38163      0.22534074     0.22596843   
     57000   0.98184073     254.76009      0.22347377     0.22613137   
     58000   1.0126807      259.08604      0.22335003     0.2262045    
     59000   0.99898865     263.73374      0.22350317     0.22622765   
     60000   0.98359102     269.94794      0.22495662     0.22634548   
     61000   1.0004105      274.39248      0.22491187     0.22652515   
     62000   0.99471477     277.80468      0.22403603     0.22661756   
     63000   0.99891733     281.59713      0.22348978     0.22661717   
     64000   0.99212185     285.85171      0.22332165     0.22660236   
     65000   0.98861595     291.48964      0.2242228      0.22660443   
     66000   1.0176707      296.4067       0.22455053     0.2266629    
     67000   1.0003583      301.21344      0.22478615     0.22673943   
     68000   1.0080068      305.73647      0.22480623     0.22682094   
     69000   0.97397126     310.99644      0.22535974     0.22690049   
     70000   0.98074009     316.19435      0.22585311     0.22702994   
     71000   0.99526966     320.73438      0.22586928     0.2271772    
     72000   0.99739863     325.93017      0.2263404      0.22733212   
     73000   0.98791724     330.29556      0.22622983     0.22746275   
     74000   0.97663193     334.33671      0.22590318     0.22757488   
     75000   0.98183182     337.94412      0.22529608     0.22761803   
     76000   0.98202352     343.15812      0.22576192     0.22765669   
     77000   0.99228232     348.465        0.22627598     0.22775309   
     78000   0.98791212     351.61694      0.22539547     0.22781992   
     79000   0.98652985     355.48061      0.22498773     0.22785015   
     80000   0.98816175     359.51878      0.22469924     0.22783415   
     81000   0.99581572     361.1748       0.22294741     0.22774119   
     82000   1.0006903      363.85029      0.22185994     0.22755744   
     83000   0.9913948      366.84552      0.22099128     0.22729525   
     84000   0.99768735     371.59307      0.22118635     0.22703169   
     85000   1.0023153      376.46055      0.22144738     0.22679234   
     86000   0.99930466     380.07137      0.22097172     0.22656571   
     87000   1.0028557      383.30109      0.22028798     0.22630797   
     88000   0.99850749     386.09881      0.21937432     0.22601893   
     89000   0.99324636     391.31449      0.2198396      0.22572539   
     90000   0.99742864     396.33391      0.2201855      0.22546371   
     91000   1.0010873      401.03452      0.22034863     0.22524816   
     92000   0.99524        405.53304      0.22039839     0.22503938   
     93000   1.0142899      409.05395      0.21992148     0.22481568   
     94000   0.98443753     412.89559      0.21962531     0.22459279   
     95000   0.99794707     417.21376      0.21958619     0.22436306   
     96000   0.99900716     420.03572      0.2187686      0.22413196   
     97000   0.98555885     423.40725      0.21825116     0.22385564   
     98000   0.9938523      427.11564      0.21791614     0.22356049   
     99000   1.0058279      430.76858      0.21755989     0.22325966   
    100000   0.99662493     435.15837      0.21757918     0.22297646   
Loop time of 69.2084 on 1 procs for 100000 steps with 3200 atoms

Performance: 624201.759 tau/day, 1444.911 timesteps/s, 4.624 Matom-step/s
93.3% CPU use with 1 MPI tasks x 1 OpenMP threads

MPI task timing breakdown:
Section |  min time  |  avg time  |  max time  |%varavg| %total
---------------------------------------------------------------
Pair    | 47.378     | 47.378     | 47.378     |   0.0 | 68.46
Neigh   | 10.157     | 10.157     | 10.157     |   0.0 | 14.68
Comm    | 0.99967    | 0.99967    | 0.99967    |   0.0 |  1.44
Output  | 0.12662    | 0.12662    | 0.12662    |   0.0 |  0.18
Modify  | 7.4979     | 7.4979     | 7.4979     |   0.0 | 10.83
Other   |            | 3.05       |            |       |  4.41

Nlocal:           3200 ave        3200 max        3200 min
Histogram: 1 0 0 0 0 0 0 0 0 0
Nghost:            521 ave         521 max         521 min
Histogram: 1 0 0 0 0 0 0 0 0 0
Neighs:          22455 ave       22455 max       22455 min
Histogram: 1 0 0 0 0 0 0 0 0 0

Total # of neighbors = 22455
Ave neighs/atom = 7.0171875
Neighbor list builds = 9201
Dangerous builds = 0
Total wall time: 0:02:56
